+ 5.01569 /NodeList/0/DeviceList/0/$ns3::CsmaNetDevice/TxQueue/Enqueue ns3::EthernetHeader ( length/type=0x800, source=00:00:00:00:00:01, destination=01:00:5e:01:02:04) ns3::Ipv4Header (tos 0x0 DSCP Default ECN Not-ECT ttl 64 id 0 protocol 17 offset (bytes) 0 flags [none] length: 156 10.1.1.1 > 225.1.2.4) ns3::UdpHeader (length: 136 49153 > 9) Payload (size=128) ns3::EthernetTrailer (fcs=0)
- 5.01569 /NodeList/0/DeviceList/0/$ns3::CsmaNetDevice/TxQueue/Dequeue ns3::EthernetHeader ( length/type=0x800, source=00:00:00:00:00:01, destination=01:00:5e:01:02:04) ns3::Ipv4Header (tos 0x0 DSCP Default ECN Not-ECT ttl 64 id 0 protocol 17 offset (bytes) 0 flags [none] length: 156 10.1.1.1 > 225.1.2.4) ns3::UdpHeader (length: 136 49153 > 9) Payload (size=128) ns3::EthernetTrailer (fcs=0)
r 5.01796 /NodeList/1/DeviceList/0/$ns3::CsmaNetDevice/MacRx ns3::EthernetHeader ( length/type=0x800, source=00:00:00:00:00:01, destination=01:00:5e:01:02:04) ns3::Ipv4Header (tos 0x0 DSCP Default ECN Not-ECT ttl 64 id 0 protocol 17 offset (bytes) 0 flags [none] length: 156 10.1.1.1 > 225.1.2.4) ns3::UdpHeader (length: 136 49153 > 9) Payload (size=128) ns3::EthernetTrailer (fcs=0)
r 5.01796 /NodeList/2/DeviceList/0/$ns3::CsmaNetDevice/MacRx ns3::EthernetHeader ( length/type=0x800, source=00:00:00:00:00:01, destination=01:00:5e:01:02:04) ns3::Ipv4Header (tos 0x0 DSCP Default ECN Not-ECT ttl 64 id 0 protocol 17 offset (bytes) 0 flags [none] length: 156 10.1.1.1 > 225.1.2.4) ns3::UdpHeader (length: 136 49153 > 9) Payload (size=128) ns3::EthernetTrailer (fcs=0)
+ 5.01796 /NodeList/2/DeviceList/1/$ns3::CsmaNetDevice/TxQueue/Enqueue ns3::EthernetHeader ( length/type=0x800, source=00:00:00:00:00:04, destination=01:00:5e:01:02:04) ns3::Ipv4Header (tos 0x0 DSCP Default ECN Not-ECT ttl 63 id 0 protocol 17 offset (bytes) 0 flags [none] length: 156 10.1.1.1 > 225.1.2.4) ns3::UdpHeader (length: 136 49153 > 9) Payload (size=128) ns3::EthernetTrailer (fcs=0)
- 5.01796 /NodeList/2/DeviceList/1/$ns3::CsmaNetDevice/TxQueue/Dequeue ns3::EthernetHeader ( length/type=0x800, source=00:00:00:00:00:04, destination=01:00:5e:01:02:04) ns3::Ipv4Header (tos 0x0 DSCP Default ECN Not-ECT ttl 63 id 0 protocol 17 offset (bytes) 0 flags [none] length: 156 10.1.1.1 > 225.1.2.4) ns3::UdpHeader (length: 136 49153 > 9) Payload (size=128) ns3::EthernetTrailer (fcs=0)
r 5.02024 /NodeList/3/DeviceList/0/$ns3::CsmaNetDevice/MacRx ns3::EthernetHeader ( length/type=0x800, source=00:00:00:00:00:04, destination=01:00:5e:01:02:04) ns3::Ipv4Header (tos 0x0 DSCP Default ECN Not-ECT ttl 63 id 0 protocol 17 offset (bytes) 0 flags [none] length: 156 10.1.1.1 > 225.1.2.4) ns3::UdpHeader (length: 136 49153 > 9) Payload (size=128) ns3::EthernetTrailer (fcs=0)
r 5.02024 /NodeList/4/DeviceList/0/$ns3::CsmaNetDevice/MacRx ns3::EthernetHeader ( length/type=0x800, source=00:00:00:00:00:04, destination=01:00:5e:01:02:04) ns3::Ipv4Header (tos 0x0 DSCP Default ECN Not-ECT ttl 63 id 0 protocol 17 offset (bytes) 0 flags [none] length: 156 10.1.1.1 > 225.1.2.4) ns3::UdpHeader (length: 136 49153 > 9) Payload (size=128) ns3::EthernetTrailer (fcs=0)
+ 9.03137 /NodeList/0/DeviceList/0/$ns3::CsmaNetDevice/TxQueue/Enqueue ns3::EthernetHeader ( length/type=0x800, source=00:00:00:00:00:01, destination=01:00:5e:01:02:04) ns3::Ipv4Header (tos 0x0 DSCP Default ECN Not-ECT ttl 64 id 1 protocol 17 offset (bytes) 0 flags [none] length: 156 10.1.1.1 > 225.1.2.4) ns3::UdpHeader (length: 136 49153 > 9) Payload (size=128) ns3::EthernetTrailer (fcs=0)
- 9.03137 /NodeList/0/DeviceList/0/$ns3::CsmaNetDevice/TxQueue/Dequeue ns3::EthernetHeader ( length/type=0x800, source=00:00:00:00:00:01, destination=01:00:5e:01:02:04) ns3::Ipv4Header (tos 0x0 DSCP Default ECN Not-ECT ttl 64 id 1 protocol 17 offset (bytes) 0 flags [none] length: 156 10.1.1.1 > 225.1.2.4) ns3::UdpHeader (length: 136 49153 > 9) Payload (size=128) ns3::EthernetTrailer (fcs=0)
r 9.03365 /NodeList/1/DeviceList/0/$ns3::CsmaNetDevice/MacRx ns3::EthernetHeader ( length/type=0x800, source=00:00:00:00:00:01, destination=01:00:5e:01:02:04) ns3::Ipv4Header (tos 0x0 DSCP Default ECN Not-ECT ttl 64 id 1 protocol 17 offset (bytes) 0 flags [none] length: 156 10.1.1.1 > 225.1.2.4) ns3::UdpHeader (length: 136 49153 > 9) Payload (size=128) ns3::EthernetTrailer (fcs=0)
r 9.03365 /NodeList/2/DeviceList/0/$ns3::CsmaNetDevice/MacRx ns3::EthernetHeader ( length/type=0x800, source=00:00:00:00:00:01, destination=01:00:5e:01:02:04) ns3::Ipv4Header (tos 0x0 DSCP Default ECN Not-ECT ttl 64 id 1 protocol 17 offset (bytes) 0 flags [none] length: 156 10.1.1.1 > 225.1.2.4) ns3::UdpHeader (length: 136 49153 > 9) Payload (size=128) ns3::EthernetTrailer (fcs=0)
+ 9.03365 /NodeList/2/DeviceList/1/$ns3::CsmaNetDevice/TxQueue/Enqueue ns3::EthernetHeader ( length/type=0x800, source=00:00:00:00:00:04, destination=01:00:5e:01:02:04) ns3::Ipv4Header (tos 0x0 DSCP Default ECN Not-ECT ttl 63 id 1 protocol 17 offset (bytes) 0 flags [none] length: 156 10.1.1.1 > 225.1.2.4) ns3::UdpHeader (length: 136 49153 > 9) Payload (size=128) ns3::EthernetTrailer (fcs=0)
- 9.03365 /NodeList/2/DeviceList/1/$ns3::CsmaNetDevice/TxQueue/Dequeue ns3::EthernetHeader ( length/type=0x800, source=00:00:00:00:00:04, destination=01:00:5e:01:02:04) ns3::Ipv4Header (tos 0x0 DSCP Default ECN Not-ECT ttl 63 id 1 protocol 17 offset (bytes) 0 flags [none] length: 156 10.1.1.1 > 225.1.2.4) ns3::UdpHeader (length: 136 49153 > 9) Payload (size=128) ns3::EthernetTrailer (fcs=0)
r 9.03593 /NodeList/3/DeviceList/0/$ns3::CsmaNetDevice/MacRx ns3::EthernetHeader ( length/type=0x800, source=00:00:00:00:00:04, destination=01:00:5e:01:02:04) ns3::Ipv4Header (tos 0x0 DSCP Default ECN Not-ECT ttl 63 id 1 protocol 17 offset (bytes) 0 flags [none] length: 156 10.1.1.1 > 225.1.2.4) ns3::UdpHeader (length: 136 49153 > 9) Payload (size=128) ns3::EthernetTrailer (fcs=0)
r 9.03593 /NodeList/4/DeviceList/0/$ns3::CsmaNetDevice/MacRx ns3::EthernetHeader ( length/type=0x800, source=00:00:00:00:00:04, destination=01:00:5e:01:02:04) ns3::Ipv4Header (tos 0x0 DSCP Default ECN Not-ECT ttl 63 id 1 protocol 17 offset (bytes) 0 flags [none] length: 156 10.1.1.1 > 225.1.2.4) ns3::UdpHeader (length: 136 49153 > 9) Payload (size=128) ns3::EthernetTrailer (fcs=0)
