+ 0.004 /NodeList/2/DeviceList/1/$ns3::CsmaNetDevice/TxQueue/Enqueue ns3::EthernetHeader ( length/type=0x86dd, source=00:00:00:00:00:03, destination=33:33:ff:00:00:03) ns3::Ipv6Header ((Version 6 Traffic class 0x0 DSCP Default Flow Label 0x0 Payload Length 32 Next Header 58 Hop Limit 255 ):: > ff02::1) ns3::Icmpv6NS (( type = 135 (NS) code = 0 target = fe80::200:ff:fe00:3 checksum = 6521)) ns3::Icmpv6OptionLinkLayerAddress (( type = 1 length = 1 L2 Address = 00-06-00:00:00:00:00:03)) ns3::EthernetTrailer (fcs=0)
- 0.004 /NodeList/2/DeviceList/1/$ns3::CsmaNetDevice/TxQueue/Dequeue ns3::EthernetHeader ( length/type=0x86dd, source=00:00:00:00:00:03, destination=33:33:ff:00:00:03) ns3::Ipv6Header ((Version 6 Traffic class 0x0 DSCP Default Flow Label 0x0 Payload Length 32 Next Header 58 Hop Limit 255 ):: > ff02::1) ns3::Icmpv6NS (( type = 135 (NS) code = 0 target = fe80::200:ff:fe00:3 checksum = 6521)) ns3::Icmpv6OptionLinkLayerAddress (( type = 1 length = 1 L2 Address = 00-06-00:00:00:00:00:03)) ns3::EthernetTrailer (fcs=0)
+ 0.005 /NodeList/1/DeviceList/1/$ns3::CsmaNetDevice/TxQueue/Enqueue ns3::EthernetHeader ( length/type=0x86dd, source=00:00:00:00:00:02, destination=33:33:ff:00:00:02) ns3::Ipv6Header ((Version 6 Traffic class 0x0 DSCP Default Flow Label 0x0 Payload Length 32 Next Header 58 Hop Limit 255 ):: > ff02::1) ns3::Icmpv6NS (( type = 135 (NS) code = 0 target = 2001:db8::200:ff:fe00:2 checksum = 58185)) ns3::Icmpv6OptionLinkLayerAddress (( type = 1 length = 1 L2 Address = 00-06-00:00:00:00:00:02)) ns3::EthernetTrailer (fcs=0)
- 0.005 /NodeList/1/DeviceList/1/$ns3::CsmaNetDevice/TxQueue/Dequeue ns3::EthernetHeader ( length/type=0x86dd, source=00:00:00:00:00:02, destination=33:33:ff:00:00:02) ns3::Ipv6Header ((Version 6 Traffic class 0x0 DSCP Default Flow Label 0x0 Payload Length 32 Next Header 58 Hop Limit 255 ):: > ff02::1) ns3::Icmpv6NS (( type = 135 (NS) code = 0 target = 2001:db8::200:ff:fe00:2 checksum = 58185)) ns3::Icmpv6OptionLinkLayerAddress (( type = 1 length = 1 L2 Address = 00-06-00:00:00:00:00:02)) ns3::EthernetTrailer (fcs=0)
+ 0.006 /NodeList/0/DeviceList/1/$ns3::CsmaNetDevice/TxQueue/Enqueue ns3::EthernetHeader ( length/type=0x86dd, source=00:00:00:00:00:01, destination=33:33:ff:00:00:01) ns3::Ipv6Header ((Version 6 Traffic class 0x0 DSCP Default Flow Label 0x0 Payload Length 32 Next Header 58 Hop Limit 255 ):: > ff02::1) ns3::Icmpv6NS (( type = 135 (NS) code = 0 target = 2001:db8::200:ff:fe00:1 checksum = 58697)) ns3::Icmpv6OptionLinkLayerAddress (( type = 1 length = 1 L2 Address = 00-06-00:00:00:00:00:01)) ns3::EthernetTrailer (fcs=0)
- 0.006 /NodeList/0/DeviceList/1/$ns3::CsmaNetDevice/TxQueue/Dequeue ns3::EthernetHeader ( length/type=0x86dd, source=00:00:00:00:00:01, destination=33:33:ff:00:00:01) ns3::Ipv6Header ((Version 6 Traffic class 0x0 DSCP Default Flow Label 0x0 Payload Length 32 Next Header 58 Hop Limit 255 ):: > ff02::1) ns3::Icmpv6NS (( type = 135 (NS) code = 0 target = 2001:db8::200:ff:fe00:1 checksum = 58697)) ns3::Icmpv6OptionLinkLayerAddress (( type = 1 length = 1 L2 Address = 00-06-00:00:00:00:00:01)) ns3::EthernetTrailer (fcs=0)
r 0.006144 /NodeList/0/DeviceList/1/$ns3::CsmaNetDevice/MacRx ns3::EthernetHeader ( length/type=0x86dd, source=00:00:00:00:00:03, destination=33:33:ff:00:00:03) ns3::Ipv6Header ((Version 6 Traffic class 0x0 DSCP Default Flow Label 0x0 Payload Length 32 Next Header 58 Hop Limit 255 ):: > ff02::1) ns3::Icmpv6NS (( type = 135 (NS) code = 0 target = fe80::200:ff:fe00:3 checksum = 6521)) ns3::Icmpv6OptionLinkLayerAddress (( type = 1 length = 1 L2 Address = 00-06-00:00:00:00:00:03)) ns3::EthernetTrailer (fcs=0)
r 0.006144 /NodeList/1/DeviceList/1/$ns3::CsmaNetDevice/MacRx ns3::EthernetHeader ( length/type=0x86dd, source=00:00:00:00:00:03, destination=33:33:ff:00:00:03) ns3::Ipv6Header ((Version 6 Traffic class 0x0 DSCP Default Flow Label 0x0 Payload Length 32 Next Header 58 Hop Limit 255 ):: > ff02::1) ns3::Icmpv6NS (( type = 135 (NS) code = 0 target = fe80::200:ff:fe00:3 checksum = 6521)) ns3::Icmpv6OptionLinkLayerAddress (( type = 1 length = 1 L2 Address = 00-06-00:00:00:00:00:03)) ns3::EthernetTrailer (fcs=0)
r 0.006144 /NodeList/3/DeviceList/1/$ns3::CsmaNetDevice/MacRx ns3::EthernetHeader ( length/type=0x86dd, source=00:00:00:00:00:03, destination=33:33:ff:00:00:03) ns3::Ipv6Header ((Version 6 Traffic class 0x0 DSCP Default Flow Label 0x0 Payload Length 32 Next Header 58 Hop Limit 255 ):: > ff02::1) ns3::Icmpv6NS (( type = 135 (NS) code = 0 target = fe80::200:ff:fe00:3 checksum = 6521)) ns3::Icmpv6OptionLinkLayerAddress (( type = 1 length = 1 L2 Address = 00-06-00:00:00:00:00:03)) ns3::EthernetTrailer (fcs=0)
+ 0.007 /NodeList/1/DeviceList/1/$ns3::CsmaNetDevice/TxQueue/Enqueue ns3::EthernetHeader ( length/type=0x86dd, source=00:00:00:00:00:02, destination=33:33:ff:00:00:02) ns3::Ipv6Header ((Version 6 Traffic class 0x0 DSCP Default Flow Label 0x0 Payload Length 32 Next Header 58 Hop Limit 255 ):: > ff02::1) ns3::Icmpv6NS (( type = 135 (NS) code = 0 target = fe80::200:ff:fe00:2 checksum = 7033)) ns3::Icmpv6OptionLinkLayerAddress (( type = 1 length = 1 L2 Address = 00-06-00:00:00:00:00:02)) ns3::EthernetTrailer (fcs=0)
+ 0.007 /NodeList/2/DeviceList/1/$ns3::CsmaNetDevice/TxQueue/Enqueue ns3::EthernetHeader ( length/type=0x86dd, source=00:00:00:00:00:03, destination=33:33:ff:00:00:03) ns3::Ipv6Header ((Version 6 Traffic class 0x0 DSCP Default Flow Label 0x0 Payload Length 32 Next Header 58 Hop Limit 255 ):: > ff02::1) ns3::Icmpv6NS (( type = 135 (NS) code = 0 target = 2001:db8::200:ff:fe00:3 checksum = 57673)) ns3::Icmpv6OptionLinkLayerAddress (( type = 1 length = 1 L2 Address = 00-06-00:00:00:00:00:03)) ns3::EthernetTrailer (fcs=0)
- 0.007 /NodeList/2/DeviceList/1/$ns3::CsmaNetDevice/TxQueue/Dequeue ns3::EthernetHeader ( length/type=0x86dd, source=00:00:00:00:00:03, destination=33:33:ff:00:00:03) ns3::Ipv6Header ((Version 6 Traffic class 0x0 DSCP Default Flow Label 0x0 Payload Length 32 Next Header 58 Hop Limit 255 ):: > ff02::1) ns3::Icmpv6NS (( type = 135 (NS) code = 0 target = 2001:db8::200:ff:fe00:3 checksum = 57673)) ns3::Icmpv6OptionLinkLayerAddress (( type = 1 length = 1 L2 Address = 00-06-00:00:00:00:00:03)) ns3::EthernetTrailer (fcs=0)
+ 0.008 /NodeList/0/DeviceList/1/$ns3::CsmaNetDevice/TxQueue/Enqueue ns3::EthernetHeader ( length/type=0x86dd, source=00:00:00:00:00:01, destination=33:33:ff:00:00:01) ns3::Ipv6Header ((Version 6 Traffic class 0x0 DSCP Default Flow Label 0x0 Payload Length 32 Next Header 58 Hop Limit 255 ):: > ff02::1) ns3::Icmpv6NS (( type = 135 (NS) code = 0 target = fe80::200:ff:fe00:1 checksum = 7545)) ns3::Icmpv6OptionLinkLayerAddress (( type = 1 length = 1 L2 Address = 00-06-00:00:00:00:00:01)) ns3::EthernetTrailer (fcs=0)
- 0.008 /NodeList/0/DeviceList/1/$ns3::CsmaNetDevice/TxQueue/Dequeue ns3::EthernetHeader ( length/type=0x86dd, source=00:00:00:00:00:01, destination=33:33:ff:00:00:01) ns3::Ipv6Header ((Version 6 Traffic class 0x0 DSCP Default Flow Label 0x0 Payload Length 32 Next Header 58 Hop Limit 255 ):: > ff02::1) ns3::Icmpv6NS (( type = 135 (NS) code = 0 target = fe80::200:ff:fe00:1 checksum = 7545)) ns3::Icmpv6OptionLinkLayerAddress (( type = 1 length = 1 L2 Address = 00-06-00:00:00:00:00:01)) ns3::EthernetTrailer (fcs=0)
+ 0.008 /NodeList/3/DeviceList/1/$ns3::CsmaNetDevice/TxQueue/Enqueue ns3::EthernetHeader ( length/type=0x86dd, source=00:00:00:00:00:04, destination=33:33:ff:00:00:04) ns3::Ipv6Header ((Version 6 Traffic class 0x0 DSCP Default Flow Label 0x0 Payload Length 32 Next Header 58 Hop Limit 255 ):: > ff02::1) ns3::Icmpv6NS (( type = 135 (NS) code = 0 target = fe80::200:ff:fe00:4 checksum = 6009)) ns3::Icmpv6OptionLinkLayerAddress (( type = 1 length = 1 L2 Address = 00-06-00:00:00:00:00:04)) ns3::EthernetTrailer (fcs=0)
- 0.008 /NodeList/3/DeviceList/1/$ns3::CsmaNetDevice/TxQueue/Dequeue ns3::EthernetHeader ( length/type=0x86dd, source=00:00:00:00:00:04, destination=33:33:ff:00:00:04) ns3::Ipv6Header ((Version 6 Traffic class 0x0 DSCP Default Flow Label 0x0 Payload Length 32 Next Header 58 Hop Limit 255 ):: > ff02::1) ns3::Icmpv6NS (( type = 135 (NS) code = 0 target = fe80::200:ff:fe00:4 checksum = 6009)) ns3::Icmpv6OptionLinkLayerAddress (( type = 1 length = 1 L2 Address = 00-06-00:00:00:00:00:04)) ns3::EthernetTrailer (fcs=0)
r 0.0083 /NodeList/1/DeviceList/1/$ns3::CsmaNetDevice/MacRx ns3::EthernetHeader ( length/type=0x86dd, source=00:00:00:00:00:01, destination=33:33:ff:00:00:01) ns3::Ipv6Header ((Version 6 Traffic class 0x0 DSCP Default Flow Label 0x0 Payload Length 32 Next Header 58 Hop Limit 255 ):: > ff02::1) ns3::Icmpv6NS (( type = 135 (NS) code = 0 target = 2001:db8::200:ff:fe00:1 checksum = 58697)) ns3::Icmpv6OptionLinkLayerAddress (( type = 1 length = 1 L2 Address = 00-06-00:00:00:00:00:01)) ns3::EthernetTrailer (fcs=0)
r 0.0083 /NodeList/2/DeviceList/1/$ns3::CsmaNetDevice/MacRx ns3::EthernetHeader ( length/type=0x86dd, source=00:00:00:00:00:01, destination=33:33:ff:00:00:01) ns3::Ipv6Header ((Version 6 Traffic class 0x0 DSCP Default Flow Label 0x0 Payload Length 32 Next Header 58 Hop Limit 255 ):: > ff02::1) ns3::Icmpv6NS (( type = 135 (NS) code = 0 target = 2001:db8::200:ff:fe00:1 checksum = 58697)) ns3::Icmpv6OptionLinkLayerAddress (( type = 1 length = 1 L2 Address = 00-06-00:00:00:00:00:01)) ns3::EthernetTrailer (fcs=0)
r 0.0083 /NodeList/3/DeviceList/1/$ns3::CsmaNetDevice/MacRx ns3::EthernetHeader ( length/type=0x86dd, source=00:00:00:00:00:01, destination=33:33:ff:00:00:01) ns3::Ipv6Header ((Version 6 Traffic class 0x0 DSCP Default Flow Label 0x0 Payload Length 32 Next Header 58 Hop Limit 255 ):: > ff02::1) ns3::Icmpv6NS (( type = 135 (NS) code = 0 target = 2001:db8::200:ff:fe00:1 checksum = 58697)) ns3::Icmpv6OptionLinkLayerAddress (( type = 1 length = 1 L2 Address = 00-06-00:00:00:00:00:01)) ns3::EthernetTrailer (fcs=0)
+ 0.009 /NodeList/3/DeviceList/1/$ns3::CsmaNetDevice/TxQueue/Enqueue ns3::EthernetHeader ( length/type=0x86dd, source=00:00:00:00:00:04, destination=33:33:ff:00:00:04) ns3::Ipv6Header ((Version 6 Traffic class 0x0 DSCP Default Flow Label 0x0 Payload Length 32 Next Header 58 Hop Limit 255 ):: > ff02::1) ns3::Icmpv6NS (( type = 135 (NS) code = 0 target = 2001:db8::200:ff:fe00:4 checksum = 57161)) ns3::Icmpv6OptionLinkLayerAddress (( type = 1 length = 1 L2 Address = 00-06-00:00:00:00:00:04)) ns3::EthernetTrailer (fcs=0)
- 0.009 /NodeList/3/DeviceList/1/$ns3::CsmaNetDevice/TxQueue/Dequeue ns3::EthernetHeader ( length/type=0x86dd, source=00:00:00:00:00:04, destination=33:33:ff:00:00:04) ns3::Ipv6Header ((Version 6 Traffic class 0x0 DSCP Default Flow Label 0x0 Payload Length 32 Next Header 58 Hop Limit 255 ):: > ff02::1) ns3::Icmpv6NS (( type = 135 (NS) code = 0 target = 2001:db8::200:ff:fe00:4 checksum = 57161)) ns3::Icmpv6OptionLinkLayerAddress (( type = 1 length = 1 L2 Address = 00-06-00:00:00:00:00:04)) ns3::EthernetTrailer (fcs=0)
r 0.01049 /NodeList/0/DeviceList/1/$ns3::CsmaNetDevice/MacRx ns3::EthernetHeader ( length/type=0x86dd, source=00:00:00:00:00:04, destination=33:33:ff:00:00:04) ns3::Ipv6Header ((Version 6 Traffic class 0x0 DSCP Default Flow Label 0x0 Payload Length 32 Next Header 58 Hop Limit 255 ):: > ff02::1) ns3::Icmpv6NS (( type = 135 (NS) code = 0 target = fe80::200:ff:fe00:4 checksum = 6009)) ns3::Icmpv6OptionLinkLayerAddress (( type = 1 length = 1 L2 Address = 00-06-00:00:00:00:00:04)) ns3::EthernetTrailer (fcs=0)
r 0.01049 /NodeList/1/DeviceList/1/$ns3::CsmaNetDevice/MacRx ns3::EthernetHeader ( length/type=0x86dd, source=00:00:00:00:00:04, destination=33:33:ff:00:00:04) ns3::Ipv6Header ((Version 6 Traffic class 0x0 DSCP Default Flow Label 0x0 Payload Length 32 Next Header 58 Hop Limit 255 ):: > ff02::1) ns3::Icmpv6NS (( type = 135 (NS) code = 0 target = fe80::200:ff:fe00:4 checksum = 6009)) ns3::Icmpv6OptionLinkLayerAddress (( type = 1 length = 1 L2 Address = 00-06-00:00:00:00:00:04)) ns3::EthernetTrailer (fcs=0)
r 0.01049 /NodeList/2/DeviceList/1/$ns3::CsmaNetDevice/MacRx ns3::EthernetHeader ( length/type=0x86dd, source=00:00:00:00:00:04, destination=33:33:ff:00:00:04) ns3::Ipv6Header ((Version 6 Traffic class 0x0 DSCP Default Flow Label 0x0 Payload Length 32 Next Header 58 Hop Limit 255 ):: > ff02::1) ns3::Icmpv6NS (( type = 135 (NS) code = 0 target = fe80::200:ff:fe00:4 checksum = 6009)) ns3::Icmpv6OptionLinkLayerAddress (( type = 1 length = 1 L2 Address = 00-06-00:00:00:00:00:04)) ns3::EthernetTrailer (fcs=0)
r 0.012892 /NodeList/0/DeviceList/1/$ns3::CsmaNetDevice/MacRx ns3::EthernetHeader ( length/type=0x86dd, source=00:00:00:00:00:03, destination=33:33:ff:00:00:03) ns3::Ipv6Header ((Version 6 Traffic class 0x0 DSCP Default Flow Label 0x0 Payload Length 32 Next Header 58 Hop Limit 255 ):: > ff02::1) ns3::Icmpv6NS (( type = 135 (NS) code = 0 target = 2001:db8::200:ff:fe00:3 checksum = 57673)) ns3::Icmpv6OptionLinkLayerAddress (( type = 1 length = 1 L2 Address = 00-06-00:00:00:00:00:03)) ns3::EthernetTrailer (fcs=0)
r 0.012892 /NodeList/1/DeviceList/1/$ns3::CsmaNetDevice/MacRx ns3::EthernetHeader ( length/type=0x86dd, source=00:00:00:00:00:03, destination=33:33:ff:00:00:03) ns3::Ipv6Header ((Version 6 Traffic class 0x0 DSCP Default Flow Label 0x0 Payload Length 32 Next Header 58 Hop Limit 255 ):: > ff02::1) ns3::Icmpv6NS (( type = 135 (NS) code = 0 target = 2001:db8::200:ff:fe00:3 checksum = 57673)) ns3::Icmpv6OptionLinkLayerAddress (( type = 1 length = 1 L2 Address = 00-06-00:00:00:00:00:03)) ns3::EthernetTrailer (fcs=0)
r 0.012892 /NodeList/3/DeviceList/1/$ns3::CsmaNetDevice/MacRx ns3::EthernetHeader ( length/type=0x86dd, source=00:00:00:00:00:03, destination=33:33:ff:00:00:03) ns3::Ipv6Header ((Version 6 Traffic class 0x0 DSCP Default Flow Label 0x0 Payload Length 32 Next Header 58 Hop Limit 255 ):: > ff02::1) ns3::Icmpv6NS (( type = 135 (NS) code = 0 target = 2001:db8::200:ff:fe00:3 checksum = 57673)) ns3::Icmpv6OptionLinkLayerAddress (( type = 1 length = 1 L2 Address = 00-06-00:00:00:00:00:03)) ns3::EthernetTrailer (fcs=0)
- 0.0130732 /NodeList/1/DeviceList/1/$ns3::CsmaNetDevice/TxQueue/Dequeue ns3::EthernetHeader ( length/type=0x86dd, source=00:00:00:00:00:02, destination=33:33:ff:00:00:02) ns3::Ipv6Header ((Version 6 Traffic class 0x0 DSCP Default Flow Label 0x0 Payload Length 32 Next Header 58 Hop Limit 255 ):: > ff02::1) ns3::Icmpv6NS (( type = 135 (NS) code = 0 target = fe80::200:ff:fe00:2 checksum = 7033)) ns3::Icmpv6OptionLinkLayerAddress (( type = 1 length = 1 L2 Address = 00-06-00:00:00:00:00:02)) ns3::EthernetTrailer (fcs=0)
r 0.015054 /NodeList/0/DeviceList/1/$ns3::CsmaNetDevice/MacRx ns3::EthernetHeader ( length/type=0x86dd, source=00:00:00:00:00:02, destination=33:33:ff:00:00:02) ns3::Ipv6Header ((Version 6 Traffic class 0x0 DSCP Default Flow Label 0x0 Payload Length 32 Next Header 58 Hop Limit 255 ):: > ff02::1) ns3::Icmpv6NS (( type = 135 (NS) code = 0 target = 2001:db8::200:ff:fe00:2 checksum = 58185)) ns3::Icmpv6OptionLinkLayerAddress (( type = 1 length = 1 L2 Address = 00-06-00:00:00:00:00:02)) ns3::EthernetTrailer (fcs=0)
r 0.015054 /NodeList/2/DeviceList/1/$ns3::CsmaNetDevice/MacRx ns3::EthernetHeader ( length/type=0x86dd, source=00:00:00:00:00:02, destination=33:33:ff:00:00:02) ns3::Ipv6Header ((Version 6 Traffic class 0x0 DSCP Default Flow Label 0x0 Payload Length 32 Next Header 58 Hop Limit 255 ):: > ff02::1) ns3::Icmpv6NS (( type = 135 (NS) code = 0 target = 2001:db8::200:ff:fe00:2 checksum = 58185)) ns3::Icmpv6OptionLinkLayerAddress (( type = 1 length = 1 L2 Address = 00-06-00:00:00:00:00:02)) ns3::EthernetTrailer (fcs=0)
r 0.015054 /NodeList/3/DeviceList/1/$ns3::CsmaNetDevice/MacRx ns3::EthernetHeader ( length/type=0x86dd, source=00:00:00:00:00:02, destination=33:33:ff:00:00:02) ns3::Ipv6Header ((Version 6 Traffic class 0x0 DSCP Default Flow Label 0x0 Payload Length 32 Next Header 58 Hop Limit 255 ):: > ff02::1) ns3::Icmpv6NS (( type = 135 (NS) code = 0 target = 2001:db8::200:ff:fe00:2 checksum = 58185)) ns3::Icmpv6OptionLinkLayerAddress (( type = 1 length = 1 L2 Address = 00-06-00:00:00:00:00:02)) ns3::EthernetTrailer (fcs=0)
r 0.017236 /NodeList/0/DeviceList/1/$ns3::CsmaNetDevice/MacRx ns3::EthernetHeader ( length/type=0x86dd, source=00:00:00:00:00:04, destination=33:33:ff:00:00:04) ns3::Ipv6Header ((Version 6 Traffic class 0x0 DSCP Default Flow Label 0x0 Payload Length 32 Next Header 58 Hop Limit 255 ):: > ff02::1) ns3::Icmpv6NS (( type = 135 (NS) code = 0 target = 2001:db8::200:ff:fe00:4 checksum = 57161)) ns3::Icmpv6OptionLinkLayerAddress (( type = 1 length = 1 L2 Address = 00-06-00:00:00:00:00:04)) ns3::EthernetTrailer (fcs=0)
r 0.017236 /NodeList/1/DeviceList/1/$ns3::CsmaNetDevice/MacRx ns3::EthernetHeader ( length/type=0x86dd, source=00:00:00:00:00:04, destination=33:33:ff:00:00:04) ns3::Ipv6Header ((Version 6 Traffic class 0x0 DSCP Default Flow Label 0x0 Payload Length 32 Next Header 58 Hop Limit 255 ):: > ff02::1) ns3::Icmpv6NS (( type = 135 (NS) code = 0 target = 2001:db8::200:ff:fe00:4 checksum = 57161)) ns3::Icmpv6OptionLinkLayerAddress (( type = 1 length = 1 L2 Address = 00-06-00:00:00:00:00:04)) ns3::EthernetTrailer (fcs=0)
r 0.017236 /NodeList/2/DeviceList/1/$ns3::CsmaNetDevice/MacRx ns3::EthernetHeader ( length/type=0x86dd, source=00:00:00:00:00:04, destination=33:33:ff:00:00:04) ns3::Ipv6Header ((Version 6 Traffic class 0x0 DSCP Default Flow Label 0x0 Payload Length 32 Next Header 58 Hop Limit 255 ):: > ff02::1) ns3::Icmpv6NS (( type = 135 (NS) code = 0 target = 2001:db8::200:ff:fe00:4 checksum = 57161)) ns3::Icmpv6OptionLinkLayerAddress (( type = 1 length = 1 L2 Address = 00-06-00:00:00:00:00:04)) ns3::EthernetTrailer (fcs=0)
r 0.0194832 /NodeList/0/DeviceList/1/$ns3::CsmaNetDevice/MacRx ns3::EthernetHeader ( length/type=0x86dd, source=00:00:00:00:00:02, destination=33:33:ff:00:00:02) ns3::Ipv6Header ((Version 6 Traffic class 0x0 DSCP Default Flow Label 0x0 Payload Length 32 Next Header 58 Hop Limit 255 ):: > ff02::1) ns3::Icmpv6NS (( type = 135 (NS) code = 0 target = fe80::200:ff:fe00:2 checksum = 7033)) ns3::Icmpv6OptionLinkLayerAddress (( type = 1 length = 1 L2 Address = 00-06-00:00:00:00:00:02)) ns3::EthernetTrailer (fcs=0)
r 0.0194832 /NodeList/2/DeviceList/1/$ns3::CsmaNetDevice/MacRx ns3::EthernetHeader ( length/type=0x86dd, source=00:00:00:00:00:02, destination=33:33:ff:00:00:02) ns3::Ipv6Header ((Version 6 Traffic class 0x0 DSCP Default Flow Label 0x0 Payload Length 32 Next Header 58 Hop Limit 255 ):: > ff02::1) ns3::Icmpv6NS (( type = 135 (NS) code = 0 target = fe80::200:ff:fe00:2 checksum = 7033)) ns3::Icmpv6OptionLinkLayerAddress (( type = 1 length = 1 L2 Address = 00-06-00:00:00:00:00:02)) ns3::EthernetTrailer (fcs=0)
r 0.0194832 /NodeList/3/DeviceList/1/$ns3::CsmaNetDevice/MacRx ns3::EthernetHeader ( length/type=0x86dd, source=00:00:00:00:00:02, destination=33:33:ff:00:00:02) ns3::Ipv6Header ((Version 6 Traffic class 0x0 DSCP Default Flow Label 0x0 Payload Length 32 Next Header 58 Hop Limit 255 ):: > ff02::1) ns3::Icmpv6NS (( type = 135 (NS) code = 0 target = fe80::200:ff:fe00:2 checksum = 7033)) ns3::Icmpv6OptionLinkLayerAddress (( type = 1 length = 1 L2 Address = 00-06-00:00:00:00:00:02)) ns3::EthernetTrailer (fcs=0)
r 0.022067 /NodeList/1/DeviceList/1/$ns3::CsmaNetDevice/MacRx ns3::EthernetHeader ( length/type=0x86dd, source=00:00:00:00:00:01, destination=33:33:ff:00:00:01) ns3::Ipv6Header ((Version 6 Traffic class 0x0 DSCP Default Flow Label 0x0 Payload Length 32 Next Header 58 Hop Limit 255 ):: > ff02::1) ns3::Icmpv6NS (( type = 135 (NS) code = 0 target = fe80::200:ff:fe00:1 checksum = 7545)) ns3::Icmpv6OptionLinkLayerAddress (( type = 1 length = 1 L2 Address = 00-06-00:00:00:00:00:01)) ns3::EthernetTrailer (fcs=0)
r 0.022067 /NodeList/2/DeviceList/1/$ns3::CsmaNetDevice/MacRx ns3::EthernetHeader ( length/type=0x86dd, source=00:00:00:00:00:01, destination=33:33:ff:00:00:01) ns3::Ipv6Header ((Version 6 Traffic class 0x0 DSCP Default Flow Label 0x0 Payload Length 32 Next Header 58 Hop Limit 255 ):: > ff02::1) ns3::Icmpv6NS (( type = 135 (NS) code = 0 target = fe80::200:ff:fe00:1 checksum = 7545)) ns3::Icmpv6OptionLinkLayerAddress (( type = 1 length = 1 L2 Address = 00-06-00:00:00:00:00:01)) ns3::EthernetTrailer (fcs=0)
r 0.022067 /NodeList/3/DeviceList/1/$ns3::CsmaNetDevice/MacRx ns3::EthernetHeader ( length/type=0x86dd, source=00:00:00:00:00:01, destination=33:33:ff:00:00:01) ns3::Ipv6Header ((Version 6 Traffic class 0x0 DSCP Default Flow Label 0x0 Payload Length 32 Next Header 58 Hop Limit 255 ):: > ff02::1) ns3::Icmpv6NS (( type = 135 (NS) code = 0 target = fe80::200:ff:fe00:1 checksum = 7545)) ns3::Icmpv6OptionLinkLayerAddress (( type = 1 length = 1 L2 Address = 00-06-00:00:00:00:00:01)) ns3::EthernetTrailer (fcs=0)
+ 1.002 /NodeList/1/DeviceList/1/$ns3::CsmaNetDevice/TxQueue/Enqueue ns3::EthernetHeader ( length/type=0x86dd, source=00:00:00:00:00:02, destination=33:33:00:00:00:02) ns3::Ipv6Header ((Version 6 Traffic class 0x0 DSCP Default Flow Label 0x0 Payload Length 16 Next Header 58 Hop Limit 64 )fe80::200:ff:fe00:2 > ff02::2) ns3::Icmpv6RS (( type = 133 (RS) code = 0 checksum = 10875)) ns3::Icmpv6OptionLinkLayerAddress (( type = 1 length = 1 L2 Address = 00-06-00:00:00:00:00:02)) ns3::EthernetTrailer (fcs=0)
- 1.002 /NodeList/1/DeviceList/1/$ns3::CsmaNetDevice/TxQueue/Dequeue ns3::EthernetHeader ( length/type=0x86dd, source=00:00:00:00:00:02, destination=33:33:00:00:00:02) ns3::Ipv6Header ((Version 6 Traffic class 0x0 DSCP Default Flow Label 0x0 Payload Length 16 Next Header 58 Hop Limit 64 )fe80::200:ff:fe00:2 > ff02::2) ns3::Icmpv6RS (( type = 133 (RS) code = 0 checksum = 10875)) ns3::Icmpv6OptionLinkLayerAddress (( type = 1 length = 1 L2 Address = 00-06-00:00:00:00:00:02)) ns3::EthernetTrailer (fcs=0)
+ 1.002 /NodeList/3/DeviceList/1/$ns3::CsmaNetDevice/TxQueue/Enqueue ns3::EthernetHeader ( length/type=0x86dd, source=00:00:00:00:00:04, destination=33:33:00:00:00:02) ns3::Ipv6Header ((Version 6 Traffic class 0x0 DSCP Default Flow Label 0x0 Payload Length 16 Next Header 58 Hop Limit 64 )fe80::200:ff:fe00:4 > ff02::2) ns3::Icmpv6RS (( type = 133 (RS) code = 0 checksum = 9851)) ns3::Icmpv6OptionLinkLayerAddress (( type = 1 length = 1 L2 Address = 00-06-00:00:00:00:00:04)) ns3::EthernetTrailer (fcs=0)
- 1.002 /NodeList/3/DeviceList/1/$ns3::CsmaNetDevice/TxQueue/Dequeue ns3::EthernetHeader ( length/type=0x86dd, source=00:00:00:00:00:04, destination=33:33:00:00:00:02) ns3::Ipv6Header ((Version 6 Traffic class 0x0 DSCP Default Flow Label 0x0 Payload Length 16 Next Header 58 Hop Limit 64 )fe80::200:ff:fe00:4 > ff02::2) ns3::Icmpv6RS (( type = 133 (RS) code = 0 checksum = 9851)) ns3::Icmpv6OptionLinkLayerAddress (( type = 1 length = 1 L2 Address = 00-06-00:00:00:00:00:04)) ns3::EthernetTrailer (fcs=0)
+ 1.003 /NodeList/2/DeviceList/1/$ns3::CsmaNetDevice/TxQueue/Enqueue ns3::EthernetHeader ( length/type=0x86dd, source=00:00:00:00:00:03, destination=33:33:00:00:00:02) ns3::Ipv6Header ((Version 6 Traffic class 0x0 DSCP Default Flow Label 0x0 Payload Length 16 Next Header 58 Hop Limit 64 )fe80::200:ff:fe00:3 > ff02::2) ns3::Icmpv6RS (( type = 133 (RS) code = 0 checksum = 10363)) ns3::Icmpv6OptionLinkLayerAddress (( type = 1 length = 1 L2 Address = 00-06-00:00:00:00:00:03)) ns3::EthernetTrailer (fcs=0)
- 1.003 /NodeList/2/DeviceList/1/$ns3::CsmaNetDevice/TxQueue/Dequeue ns3::EthernetHeader ( length/type=0x86dd, source=00:00:00:00:00:03, destination=33:33:00:00:00:02) ns3::Ipv6Header ((Version 6 Traffic class 0x0 DSCP Default Flow Label 0x0 Payload Length 16 Next Header 58 Hop Limit 64 )fe80::200:ff:fe00:3 > ff02::2) ns3::Icmpv6RS (( type = 133 (RS) code = 0 checksum = 10363)) ns3::Icmpv6OptionLinkLayerAddress (( type = 1 length = 1 L2 Address = 00-06-00:00:00:00:00:03)) ns3::EthernetTrailer (fcs=0)
+ 1.004 /NodeList/0/DeviceList/1/$ns3::CsmaNetDevice/TxQueue/Enqueue ns3::EthernetHeader ( length/type=0x86dd, source=00:00:00:00:00:01, destination=33:33:00:00:00:02) ns3::Ipv6Header ((Version 6 Traffic class 0x0 DSCP Default Flow Label 0x0 Payload Length 16 Next Header 58 Hop Limit 64 )fe80::200:ff:fe00:1 > ff02::2) ns3::Icmpv6RS (( type = 133 (RS) code = 0 checksum = 11387)) ns3::Icmpv6OptionLinkLayerAddress (( type = 1 length = 1 L2 Address = 00-06-00:00:00:00:00:01)) ns3::EthernetTrailer (fcs=0)
- 1.004 /NodeList/0/DeviceList/1/$ns3::CsmaNetDevice/TxQueue/Dequeue ns3::EthernetHeader ( length/type=0x86dd, source=00:00:00:00:00:01, destination=33:33:00:00:00:02) ns3::Ipv6Header ((Version 6 Traffic class 0x0 DSCP Default Flow Label 0x0 Payload Length 16 Next Header 58 Hop Limit 64 )fe80::200:ff:fe00:1 > ff02::2) ns3::Icmpv6RS (( type = 133 (RS) code = 0 checksum = 11387)) ns3::Icmpv6OptionLinkLayerAddress (( type = 1 length = 1 L2 Address = 00-06-00:00:00:00:00:01)) ns3::EthernetTrailer (fcs=0)
r 1.00412 /NodeList/0/DeviceList/1/$ns3::CsmaNetDevice/MacRx ns3::EthernetHeader ( length/type=0x86dd, source=00:00:00:00:00:02, destination=33:33:00:00:00:02) ns3::Ipv6Header ((Version 6 Traffic class 0x0 DSCP Default Flow Label 0x0 Payload Length 16 Next Header 58 Hop Limit 64 )fe80::200:ff:fe00:2 > ff02::2) ns3::Icmpv6RS (( type = 133 (RS) code = 0 checksum = 10875)) ns3::Icmpv6OptionLinkLayerAddress (( type = 1 length = 1 L2 Address = 00-06-00:00:00:00:00:02)) ns3::EthernetTrailer (fcs=0)
r 1.00412 /NodeList/2/DeviceList/1/$ns3::CsmaNetDevice/MacRx ns3::EthernetHeader ( length/type=0x86dd, source=00:00:00:00:00:02, destination=33:33:00:00:00:02) ns3::Ipv6Header ((Version 6 Traffic class 0x0 DSCP Default Flow Label 0x0 Payload Length 16 Next Header 58 Hop Limit 64 )fe80::200:ff:fe00:2 > ff02::2) ns3::Icmpv6RS (( type = 133 (RS) code = 0 checksum = 10875)) ns3::Icmpv6OptionLinkLayerAddress (( type = 1 length = 1 L2 Address = 00-06-00:00:00:00:00:02)) ns3::EthernetTrailer (fcs=0)
r 1.00412 /NodeList/3/DeviceList/1/$ns3::CsmaNetDevice/MacRx ns3::EthernetHeader ( length/type=0x86dd, source=00:00:00:00:00:02, destination=33:33:00:00:00:02) ns3::Ipv6Header ((Version 6 Traffic class 0x0 DSCP Default Flow Label 0x0 Payload Length 16 Next Header 58 Hop Limit 64 )fe80::200:ff:fe00:2 > ff02::2) ns3::Icmpv6RS (( type = 133 (RS) code = 0 checksum = 10875)) ns3::Icmpv6OptionLinkLayerAddress (( type = 1 length = 1 L2 Address = 00-06-00:00:00:00:00:02)) ns3::EthernetTrailer (fcs=0)
r 1.00625 /NodeList/1/DeviceList/1/$ns3::CsmaNetDevice/MacRx ns3::EthernetHeader ( length/type=0x86dd, source=00:00:00:00:00:01, destination=33:33:00:00:00:02) ns3::Ipv6Header ((Version 6 Traffic class 0x0 DSCP Default Flow Label 0x0 Payload Length 16 Next Header 58 Hop Limit 64 )fe80::200:ff:fe00:1 > ff02::2) ns3::Icmpv6RS (( type = 133 (RS) code = 0 checksum = 11387)) ns3::Icmpv6OptionLinkLayerAddress (( type = 1 length = 1 L2 Address = 00-06-00:00:00:00:00:01)) ns3::EthernetTrailer (fcs=0)
r 1.00625 /NodeList/2/DeviceList/1/$ns3::CsmaNetDevice/MacRx ns3::EthernetHeader ( length/type=0x86dd, source=00:00:00:00:00:01, destination=33:33:00:00:00:02) ns3::Ipv6Header ((Version 6 Traffic class 0x0 DSCP Default Flow Label 0x0 Payload Length 16 Next Header 58 Hop Limit 64 )fe80::200:ff:fe00:1 > ff02::2) ns3::Icmpv6RS (( type = 133 (RS) code = 0 checksum = 11387)) ns3::Icmpv6OptionLinkLayerAddress (( type = 1 length = 1 L2 Address = 00-06-00:00:00:00:00:01)) ns3::EthernetTrailer (fcs=0)
r 1.00625 /NodeList/3/DeviceList/1/$ns3::CsmaNetDevice/MacRx ns3::EthernetHeader ( length/type=0x86dd, source=00:00:00:00:00:01, destination=33:33:00:00:00:02) ns3::Ipv6Header ((Version 6 Traffic class 0x0 DSCP Default Flow Label 0x0 Payload Length 16 Next Header 58 Hop Limit 64 )fe80::200:ff:fe00:1 > ff02::2) ns3::Icmpv6RS (( type = 133 (RS) code = 0 checksum = 11387)) ns3::Icmpv6OptionLinkLayerAddress (( type = 1 length = 1 L2 Address = 00-06-00:00:00:00:00:01)) ns3::EthernetTrailer (fcs=0)
r 1.00863 /NodeList/0/DeviceList/1/$ns3::CsmaNetDevice/MacRx ns3::EthernetHeader ( length/type=0x86dd, source=00:00:00:00:00:04, destination=33:33:00:00:00:02) ns3::Ipv6Header ((Version 6 Traffic class 0x0 DSCP Default Flow Label 0x0 Payload Length 16 Next Header 58 Hop Limit 64 )fe80::200:ff:fe00:4 > ff02::2) ns3::Icmpv6RS (( type = 133 (RS) code = 0 checksum = 9851)) ns3::Icmpv6OptionLinkLayerAddress (( type = 1 length = 1 L2 Address = 00-06-00:00:00:00:00:04)) ns3::EthernetTrailer (fcs=0)
r 1.00863 /NodeList/1/DeviceList/1/$ns3::CsmaNetDevice/MacRx ns3::EthernetHeader ( length/type=0x86dd, source=00:00:00:00:00:04, destination=33:33:00:00:00:02) ns3::Ipv6Header ((Version 6 Traffic class 0x0 DSCP Default Flow Label 0x0 Payload Length 16 Next Header 58 Hop Limit 64 )fe80::200:ff:fe00:4 > ff02::2) ns3::Icmpv6RS (( type = 133 (RS) code = 0 checksum = 9851)) ns3::Icmpv6OptionLinkLayerAddress (( type = 1 length = 1 L2 Address = 00-06-00:00:00:00:00:04)) ns3::EthernetTrailer (fcs=0)
r 1.00863 /NodeList/2/DeviceList/1/$ns3::CsmaNetDevice/MacRx ns3::EthernetHeader ( length/type=0x86dd, source=00:00:00:00:00:04, destination=33:33:00:00:00:02) ns3::Ipv6Header ((Version 6 Traffic class 0x0 DSCP Default Flow Label 0x0 Payload Length 16 Next Header 58 Hop Limit 64 )fe80::200:ff:fe00:4 > ff02::2) ns3::Icmpv6RS (( type = 133 (RS) code = 0 checksum = 9851)) ns3::Icmpv6OptionLinkLayerAddress (( type = 1 length = 1 L2 Address = 00-06-00:00:00:00:00:04)) ns3::EthernetTrailer (fcs=0)
r 1.01092 /NodeList/0/DeviceList/1/$ns3::CsmaNetDevice/MacRx ns3::EthernetHeader ( length/type=0x86dd, source=00:00:00:00:00:03, destination=33:33:00:00:00:02) ns3::Ipv6Header ((Version 6 Traffic class 0x0 DSCP Default Flow Label 0x0 Payload Length 16 Next Header 58 Hop Limit 64 )fe80::200:ff:fe00:3 > ff02::2) ns3::Icmpv6RS (( type = 133 (RS) code = 0 checksum = 10363)) ns3::Icmpv6OptionLinkLayerAddress (( type = 1 length = 1 L2 Address = 00-06-00:00:00:00:00:03)) ns3::EthernetTrailer (fcs=0)